ITEM: TIMESTEP
0
ITEM: NUMBER OF ATOMS
31
ITEM: BOX BOUNDS pp pp pp
0.0000000000000000e+00 8.0988000000000007e+00
0.0000000000000000e+00 8.0988000000000007e+00
0.0000000000000000e+00 8.0988000000000007e+00
ITEM: ATOMS id xu yu zu
1 0 0 0
2 0 2.0247 2.0247
3 2.0247 0 2.0247
4 2.0247 2.0247 0
5 0 0 4.0494
6 0 2.0247 6.0741
7 2.0247 0 6.0741
8 2.0247 2.0247 4.0494
9 0 4.0494 0
10 0 6.0741 2.0247
11 2.0247 4.0494 2.0247
12 2.0247 6.0741 0
13 0 4.0494 4.0494
14 0 6.0741 6.0741
15 2.0247 4.0494 6.0741
16 2.0247 6.0741 4.0494
17 4.0494 0 0
18 4.0494 2.0247 2.0247
19 6.0741 0 2.0247
20 6.0741 2.0247 0
21 4.0494 0 4.0494
22 4.0494 2.0247 6.0741
23 6.0741 0 6.0741
24 6.0741 2.0247 4.0494
25 4.0494 4.0494 0
26 4.0494 6.0741 2.0247
27 6.0741 4.0494 2.0247
28 6.0741 6.0741 0
29 4.0494 4.0494 4.0494
30 4.0494 6.0741 6.0741
31 6.0741 4.0494 6.0741
ITEM: TIMESTEP
500
ITEM: NUMBER OF ATOMS
31
ITEM: BOX BOUNDS pp pp pp
0.0000000000000000e+00 8.0988000000000007e+00
0.0000000000000000e+00 8.0988000000000007e+00
0.0000000000000000e+00 8.0988000000000007e+00
ITEM: ATOMS id xu yu zu
1 -0.00938835 -0.153884 -0.182399
2 0.00961931 1.94189 1.9618
3 2.11402 0.0522498 2.35188
4 2.27006 2.08487 0.451185
5 -0.253134 -0.23832 4.01183
6 0.0845104 1.91071 6.43328
7 1.93166 0.143221 6.11084
8 2.04978 1.88032 4.1787
9 0.0109102 3.83516 -0.0114359
10 -0.233044 6.08698 1.67212
11 2.03352 4.12164 2.11429
12 2.012 6.02699 0.135604
13 0.134663 3.85111 4.23591
14 0.0776987 6.04417 6.08597
15 2.00984 3.95204 6.03091
16 1.89423 5.96194 3.96852
17 3.82022 0.104018 -0.343241
18 4.14913 2.22185 2.10381
19 5.8865 -0.118504 1.77429
20 6.05623 1.95835 -0.00778275
21 4.20978 0.0932715 4.15848
22 4.18669 2.10455 6.22939
23 6.05819 0.196825 6.25128
24 6.00597 2.0981 3.87599
25 4.25287 4.06166 -0.520393
26 3.96374 6.20544 2.22975
27 6.21669 4.23605 2.01038
28 5.88662 6.05647 -0.144427
29 4.15851 4.31834 4.10212
30 3.84871 6.01476 5.97709
31 6.2747 4.05924 5.89045
ITEM: TIMESTEP
1000
ITEM: NUMBER OF ATOMS
31
ITEM: BOX BOUNDS pp pp pp
0.0000000000000000e+00 8.0988000000000007e+00
0.0000000000000000e+00 8.0988000000000007e+00
0.0000000000000000e+00 8.0988000000000007e+00
ITEM: ATOMS id xu yu zu
1 0.292699 0.0303089 -0.00891785
2 -0.093382 1.78027 1.94968
3 2.06689 0.237362 2.01382
4 1.79169 2.19898 0.134302
5 -0.467046 -0.0126384 3.94437
6 -0.363291 1.89968 6.13916
7 2.05559 0.0710143 6.08156
8 1.83286 2.18635 4.00686
9 0.0890647 4.01728 -0.142991
10 0.301566 6.294 2.02731
11 1.72256 3.96023 2.2571
12 1.93387 6.11895 -0.210632
13 0.0674435 4.17676 4.34815
14 0.0516213 6.06861 6.02945
15 2.06087 4.24007 6.13958
16 2.04122 6.23561 3.99771
17 4.22187 -0.234491 -0.0189986
18 4.44528 1.85397 2.1856
19 6.0827 -0.473401 1.72069
20 6.29188 2.07312 -0.127632
21 4.19727 -0.24329 3.93466
22 4.04065 2.03053 5.87597
23 5.7561 -0.246859 6.13241
24 6.10771 2.07293 4.11532
25 4.04909 4.32957 0.120608
26 4.11087 5.92766 2.06963
27 6.42635 4.20987 2.49459
28 6.35313 5.8965 -0.0923993
29 3.81268 4.21548 4.24424
30 4.02582 5.88073 6.18977
31 5.80587 4.31635 5.58527
ITEM: TIMESTEP
1500
ITEM: NUMBER OF ATOMS
31
ITEM: BOX BOUNDS pp pp pp
0.0000000000000000e+00 8.0988000000000007e+00
0.0000000000000000e+00 8.0988000000000007e+00
0.0000000000000000e+00 8.0988000000000007e+00
ITEM: ATOMS id xu yu zu
1 0.0331459 -0.190965 -0.0678469
2 0.193307 2.12248 1.62379
3 2.1828 -0.054655 1.88175
4 2.10408 2.07483 -0.0597064
5 -0.451913 -0.0108779 3.82081
6 -0.144684 2.32984 6.2583
7 1.87482 0.151127 6.12204
8 1.91236 2.19783 4.03466
9 0.171953 4.52582 -0.0914921
10 0.28154 5.79958 2.55129
11 2.06761 4.17496 2.21323
12 2.27648 5.96926 -0.25461
13 -0.204244 3.81232 4.23727
14 -0.335883 5.94089 6.01687
15 2.01759 3.97492 6.06554
16 1.8613 6.21692 4.14408
17 4.26776 -0.295039 0.0780384
18 4.14007 2.09952 1.97291
19 6.0715 -0.0378071 1.89715
20 5.99648 1.77372 0.00985841
21 4.37438 -0.0534514 4.11962
22 4.16101 2.06675 6.2252
23 6.13583 -0.00369298 6.09276
24 5.96068 2.04755 4.17372
25 4.05684 4.22229 0.0367246
26 4.09935 6.05169 2.28124
27 6.12066 3.95324 1.85966
28 6.10623 5.97407 0.0235469
29 4.0528 3.80151 4.15469
30 3.94356 6.20625 5.80352
31 5.78411 4.27062 5.91161
ITEM: TIMESTEP
2000
ITEM: NUMBER OF ATOMS
31
ITEM: BOX BOUNDS pp pp pp
0.0000000000000000e+00 8.0988000000000007e+00
0.0000000000000000e+00 8.0988000000000007e+00
0.0000000000000000e+00 8.0988000000000007e+00
ITEM: ATOMS id xu yu zu
1 0.30374 -0.194498 -0.0639399
2 -0.126961 1.61879 1.76714
3 2.26317 0.141678 1.84331
4 1.74157 2.09116 -0.444066
5 -0.0497489 0.00741957 4.09871
6 -0.475804 2.06782 6.27423
7 2.33289 -0.388698 6.24593
8 1.80332 1.71637 4.34105
9 -0.143242 4.21067 -0.115259
10 -0.0767695 6.14356 2.25407
11 1.70415 4.09697 1.98817
12 2.00455 5.80206 0.206027
13 -0.118287 3.96892 4.31673
14 -0.00675697 5.99539 5.95729
15 2.99442 4.02303 4.99663
16 1.77262 6.2937 3.94163
17 4.05466 0.0462256 0.0043359
18 3.90734 2.02139 2.18828
19 5.8131 0.00996349 2.02843
20 5.74713 2.18488 0.234186
21 3.79698 -0.139683 4.06908
22 3.99461 1.62902 6.01674
23 6.39827 -0.260811 6.04942
24 5.83847 1.898 4.07418
25 3.82688 3.92947 0.282535
26 4.0598 5.97642 2.01226
27 5.91881 4.07095 2.13536
28 6.11715 6.25742 0.0341881
29 5.894 6.02133 3.86925
30 4.10037 5.77584 6.67753
31 5.72107 4.09676 5.85276
ITEM: TIMESTEP
2500
ITEM: NUMBER OF ATOMS
31
ITEM: BOX BOUNDS pp pp pp
0.0000000000000000e+00 8.0988000000000007e+00
0.0000000000000000e+00 8.0988000000000007e+00
0.0000000000000000e+00 8.0988000000000007e+00
ITEM: ATOMS id xu yu zu
1 -0.0844971 0.263635 -0.0130366
2 -0.620338 2.14034 2.16754
3 1.91575 -0.017256 1.85888
4 1.73758 2.17605 -0.0169131
5 -0.00140419 -0.105464 4.19054
6 -0.056015 2.48102 6.1438
7 1.71061 -0.165793 6.1488
8 1.66009 2.08025 4.26209
9 -0.383696 4.06881 0.225033
10 0.0945374 6.11868 1.94934
11 1.76015 3.63992 2.00119
12 1.91428 5.80437 -0.0033862
13 -0.0242031 4.10742 4.01365
14 0.17758 5.79239 5.96632
15 4.31199 3.94573 3.86544
16 2.15601 5.67358 4.30596
17 3.94521 -0.048951 -0.570619
18 3.75545 1.66567 2.36507
19 6.19939 0.0371354 2.30257
20 5.93207 1.93822 -0.130001
21 4.0233 -0.106265 4.42075
22 3.34691 2.40169 6.14769
23 6.13837 -0.436499 6.07219
24 5.89779 2.06782 4.63463
25 4.08142 3.89499 0.264849
26 3.67011 5.75375 1.89769
27 6.19087 4.18303 2.15589
28 5.90629 6.2303 0.193501
29 6.25798 5.94248 3.91291
30 3.67796 5.36897 6.14069
31 5.81996 4.21548 6.26315
ITEM: TIMESTEP
3000
ITEM: NUMBER OF ATOMS
31
ITEM: BOX BOUNDS pp pp pp
0.0000000000000000e+00 8.0988000000000007e+00
0.0000000000000000e+00 8.0988000000000007e+00
0.0000000000000000e+00 8.0988000000000007e+00
ITEM: ATOMS id xu yu zu
1 -0.0413577 -0.364649 -0.0559616
2 -0.164002 2.28758 2.33019
3 1.42638 -0.0190052 2.27635
4 2.04033 1.91154 -0.00500213
5 -0.146275 -0.0186947 4.33388
6 -0.245492 2.12009 6.07422
7 2.30703 -0.0406232 6.23342
8 1.7226 2.19983 4.60302
9 -0.338797 4.37528 -0.253902
10 -0.0803506 5.83456 1.98089
11 2.01166 3.94845 1.84392
12 2.04272 5.68471 -0.231472
13 0.219303 4.21376 4.24947
14 -0.328595 6.21536 6.06725
15 3.72217 3.94178 4.06448
16 2.21595 5.83254 4.22953
17 3.98824 -0.108521 0.357882
18 3.83607 1.90684 2.18168
19 6.0805 -0.081469 2.17265
20 6.14233 1.70938 0.341291
21 3.8464 -0.0767723 3.96261
22 4.2924 1.98047 6.31821
23 5.76695 -0.127947 5.84381
24 5.56895 1.98796 4.06294
25 4.06318 3.90752 -0.0917283
26 3.78024 5.898 1.86742
27 5.75969 4.02523 2.26613
28 5.64428 6.06789 0.14286
29 6.14994 6.10167 3.90685
30 3.90642 5.82603 6.0944
31 5.92261 3.97272 5.96889
ITEM: TIMESTEP
3500
ITEM: NUMBER OF ATOMS
31
ITEM: BOX BOUNDS pp pp pp
0.0000000000000000e+00 8.0988000000000007e+00
0.0000000000000000e+00 8.0988000000000007e+00
0.0000000000000000e+00 8.0988000000000007e+00
ITEM: ATOMS id xu yu zu
1 -0.10419 -0.236327 0.0532514
2 0.0179349 2.02276 1.95223
3 1.94395 0.156345 1.94587
4 2.10346 1.88811 -0.149721
5 0.0105886 -0.3009 4.09748
6 -0.110874 2.0223 5.99531
7 1.79539 0.131483 6.29004
8 1.62887 1.89706 3.84828
9 -0.005381 4.19638 0.195016
10 -0.263005 5.83509 2.27603
11 1.89787 3.97459 2.10261
12 1.8371 6.20504 -0.183118
13 -0.130302 3.85111 4.2156
14 -0.196099 6.09649 6.14254
15 3.39204 3.80724 4.15665
16 1.93307 5.94946 4.3167
17 4.31077 0.460485 -0.117035
18 3.94225 1.98521 1.8338
19 6.16728 -0.0155891 2.13651
20 6.15389 2.21721 0.00165962
21 3.72982 -0.0679758 4.24776
22 4.09541 1.81063 5.99873
23 6.08866 -0.116773 6.20666
24 6.05437 2.01194 4.16154
25 3.69276 4.24601 0.179463
26 3.80677 6.11303 2.26444
27 5.90273 3.72628 2.29276
28 6.03546 5.7972 -0.0387307
29 5.74086 5.61876 4.22825
30 3.65213 5.82818 6.15409
31 5.98793 4.00068 6.33151
ITEM: TIMESTEP
4000
ITEM: NUMBER OF ATOMS
31
ITEM: BOX BOUNDS pp pp pp
0.0000000000000000e+00 8.0988000000000007e+00
0.0000000000000000e+00 8.0988000000000007e+00
0.0000000000000000e+00 8.0988000000000007e+00
ITEM: ATOMS id xu yu zu
1 -0.0783295 -0.0767179 -0.173018
2 -0.275635 2.01958 2.07217
3 1.70674 -0.156207 1.78989
4 1.55064 2.18596 0.351471
5 -0.0920865 0.108318 3.99035
6 -0.0823226 2.23486 6.05709
7 1.9295 0.0218909 5.96189
8 1.89881 2.06282 4.08169
9 -0.307648 4.20272 -0.249196
10 0.0462789 6.02317 1.86541
11 1.89157 4.07312 2.2321
12 1.62432 6.22797 -0.255591
13 -0.271472 3.96269 4.06183
14 1.64439 3.89558 6.01844
15 3.84261 4.20819 4.16368
16 1.53236 6.15557 4.50622
17 3.90526 -0.0968502 0.213002
18 4.00251 1.7171 2.7417
19 5.81398 -0.0230403 1.93508
20 5.79578 1.9308 0.288512
21 3.97293 -0.291197 4.01304
22 4.10748 1.98879 6.42823
23 5.87902 0.129652 6.13315
24 6.13107 1.89761 4.28285
25 3.45015 4.24102 0.0642105
26 4.07203 6.15896 2.05963
27 5.82557 4.00105 2.01678
28 5.74428 6.02629 -0.108221
29 6.07247 6.23849 4.34502
30 3.90773 6.19698 6.1708
31 5.87154 3.84635 6.07799
ITEM: TIMESTEP
4500
ITEM: NUMBER OF ATOMS
31
ITEM: BOX BOUNDS pp pp pp
0.0000000000000000e+00 8.0988000000000007e+00
0.0000000000000000e+00 8.0988000000000007e+00
0.0000000000000000e+00 8.0988000000000007e+00
ITEM: ATOMS id xu yu zu
1 -0.16027 -0.233665 -0.0700536
2 0.0417889 2.06468 1.95725
3 1.6078 -0.569981 1.97873
4 1.75354 1.76506 0.0583224
5 -0.199528 0.148595 4.13858
6 -0.250286 2.32464 6.40186
7 1.9412 -0.0809812 5.81871
8 1.93558 1.72872 4.13928
9 -0.319605 4.2806 0.147245
10 -0.639153 6.1275 2.01743
11 1.68859 4.07444 1.96479
12 1.6574 5.96945 -0.122932
13 -0.214734 4.73284 4.32934
14 1.82155 3.88301 6.07209
15 3.78461 3.81869 3.98895
16 1.95662 5.98614 4.34016
17 3.77784 -0.0522865 0.290328
18 3.82934 1.88641 1.92692
19 5.95444 0.218364 2.29334
20 5.96597 1.95916 0.114075
21 3.87083 -0.117046 4.17244
22 4.21193 2.15666 6.07503
23 5.90199 0.313697 6.22933
24 6.31382 2.32478 4.00827
25 3.55477 3.91353 0.0733362
26 3.88251 5.76782 2.28491
27 5.91565 4.18559 1.82078
28 5.8843 6.25513 -0.0393437
29 5.91168 6.22068 4.55667
30 3.92948 6.01715 6.2679
31 5.80185 4.04213 5.90247
ITEM: TIMESTEP
5000
ITEM: NUMBER OF ATOMS
31
ITEM: BOX BOUNDS pp pp pp
0.0000000000000000e+00 8.0988000000000007e+00
0.0000000000000000e+00 8.0988000000000007e+00
0.0000000000000000e+00 8.0988000000000007e+00
ITEM: ATOMS id xu yu zu
1 -0.221259 -0.447895 -0.422753
2 -0.174342 2.07237 1.96496
3 1.55766 0.186171 1.74401
4 1.6895 1.91899 -0.0341481
5 -0.0421952 -0.0561034 4.33189
6 -0.277271 2.16248 6.31178
7 2.12301 -0.166532 6.02405
8 1.65298 2.00374 4.15913
9 -0.152343 3.87682 0.245443
10 -0.0199037 6.23 2.09584
11 1.94219 4.0876 2.21214
12 1.74344 6.04107 -0.0688071
13 -0.167155 3.81559 4.03977
14 1.4388 4.09052 6.01798
15 4.01366 4.05696 4.08222
16 2.26629 5.83301 4.07897
17 3.70299 0.081471 0.145989
18 3.65177 1.99087 2.09782
19 5.75362 -0.125474 2.06036
20 5.91218 2.04792 0.0049461
21 3.93847 0.119876 3.94467
22 3.77503 2.19492 6.20371
23 5.65359 0.240917 6.26389
24 5.9453 2.08873 4.07718
25 3.61542 4.06314 0.0893539
26 3.84302 6.18096 2.02417
27 5.91054 4.57833 2.26916
28 6.10404 6.07595 0.0674426
29 5.91419 5.95492 4.64006
30 3.89524 5.73234 6.16474
31 6.12304 4.18182 6.30024
ITEM: TIMESTEP
5500
ITEM: NUMBER OF ATOMS
31
ITEM: BOX BOUNDS pp pp pp
0.0000000000000000e+00 8.0988000000000007e+00
0.0000000000000000e+00 8.0988000000000007e+00
0.0000000000000000e+00 8.0988000000000007e+00
ITEM: ATOMS id xu yu zu
1 -0.210987 -0.120445 0.0556992
2 -0.298555 2.34598 2.09954
3 1.82732 0.153238 2.18871
4 1.97058 2.20181 0.129748
5 0.189984 -0.146567 4.14452
6 -0.40895 2.29897 6.02624
7 1.57445 -0.158981 6.46242
8 1.68157 1.8566 4.3355
9 0.0661883 4.07225 0.0999283
10 -0.33912 5.85585 2.17381
11 1.87923 4.10173 2.08604
12 1.91132 6.13386 0.169774
13 -0.253701 5.6352 5.83727
14 2.18039 3.84025 6.23114
15 3.48822 3.82588 3.77827
16 1.77204 5.86323 4.17622
17 4.05821 -0.201291 0.0422288
18 3.80744 2.06802 1.75684
19 6.14301 0.103431 2.11856
20 5.84879 1.74396 -0.374784
21 3.96972 0.384027 3.9055
22 3.82657 1.57388 6.06869
23 6.05182 -0.352498 5.72289
24 5.8764 2.344 3.72401
25 3.8981 3.94033 -0.170072
26 3.81945 6.2278 2.28571
27 5.71819 4.25839 2.14363
28 5.73744 5.83528 -0.239072
29 5.88343 5.87111 3.99626
30 3.7828 5.73517 6.26383
31 5.66016 3.82101 5.89718
ITEM: TIMESTEP
6000
ITEM: NUMBER OF ATOMS
31
ITEM: BOX BOUNDS pp pp pp
0.0000000000000000e+00 8.0988000000000007e+00
0.0000000000000000e+00 8.0988000000000007e+00
0.0000000000000000e+00 8.0988000000000007e+00
ITEM: ATOMS id xu yu zu
1 -0.265514 -0.139972 -0.143749
2 -0.18584 2.18604 1.99542
3 1.6645 -0.273704 1.83871
4 1.92296 1.6763 0.049714
5 -0.244092 0.124915 3.99817
6 -0.50463 1.91411 5.96872
7 1.75559 -0.049194 5.74624
8 1.83384 1.63635 3.85807
9 -0.427139 4.52433 -0.00161927
10 -0.264835 5.74662 2.49083
11 1.5297 3.82084 2.38614
12 1.88833 5.86983 -0.076705
13 -0.0772268 5.81783 5.81534
14 1.60777 3.63097 6.06905
15 3.68575 4.16712 4.51365
16 1.99572 6.13131 3.91567
17 4.0367 0.0535501 0.558466
18 3.87957 2.12234 2.17624
19 6.02293 0.0340748 1.99339
20 5.84834 1.99791 0.0132556
21 4.25023 -0.283559 4.00376
22 3.74253 1.81725 6.00431
23 6.0487 -0.0921485 5.79685
24 5.87059 2.13037 3.98305
25 4.18168 4.05741 -0.0413344
26 3.98732 5.78788 1.87717
27 6.00385 3.97891 2.22214
28 5.92757 6.44392 -0.106668
29 5.70478 6.04518 4.19842
30 3.84572 6.31599 6.25665
31 5.84611 3.91873 5.77686
ITEM: TIMESTEP
6500
ITEM: NUMBER OF ATOMS
31
ITEM: BOX BOUNDS pp pp pp
0.0000000000000000e+00 8.0988000000000007e+00
0.0000000000000000e+00 8.0988000000000007e+00
0.0000000000000000e+00 8.0988000000000007e+00
ITEM: ATOMS id xu yu zu
1 -0.399486 -0.15359 -0.150502
2 -0.0393902 2.01166 1.83914
3 1.87319 0.0234514 2.18308
4 1.24038 1.8841 -0.513311
5 -0.105409 0.289884 4.16329
6 -0.836723 2.17647 6.0377
7 1.90046 0.0406857 6.25397
8 1.83367 2.10937 4.25068
9 -0.757074 3.84461 0.310413
10 -0.223801 6.02075 2.27437
11 1.73021 4.17828 1.85572
12 1.7693 6.32767 0.263608
13 0.0673266 6.29994 5.95954
14 1.49428 3.9742 6.03297
15 3.70427 4.05686 4.00159
16 2.05581 5.96781 3.69496
17 3.99839 0.0171256 0.323423
18 4.14409 2.04084 1.9835
19 5.99591 0.037025 1.88725
20 5.67935 1.86348 0.0266314
21 3.60227 -0.26796 4.09174
22 3.56625 2.28109 6.05242
23 5.71295 -0.235068 5.83995
24 5.51638 1.94719 4.14233
25 3.64922 3.79928 -0.0233869
26 4.15808 5.96006 1.88889
27 5.92635 4.23597 2.52323
28 6.13409 6.0561 0.0410824
29 8.02837 3.87857 3.96402
30 3.67483 6.02516 6.23427
31 6.01797 4.42049 5.70367
ITEM: TIMESTEP
7000
ITEM: NUMBER OF ATOMS
31
ITEM: BOX BOUNDS pp pp pp
0.0000000000000000e+00 8.0988000000000007e+00
0.0000000000000000e+00 8.0988000000000007e+00
0.0000000000000000e+00 8.0988000000000007e+00
ITEM: ATOMS id xu yu zu
1 -0.359535 0.061692 -0.113198
2 -0.257025 1.87255 2.03033
3 1.67838 -0.37558 2.35534
4 1.70191 1.89023 -0.207203
5 -0.214065 -0.980504 3.91556
6 -0.213664 2.09566 5.74533
7 1.58601 0.0515332 5.87159
8 1.47725 2.71048 4.10784
9 -0.24079 3.59008 -0.0183765
10 -0.330704 5.94614 1.64464
11 1.43157 3.86252 1.78114
12 2.00822 6.19731 -0.12269
13 -0.301714 5.91002 6.50077
14 1.60371 4.06815 6.2762
15 4.16464 4.17204 4.17331
16 2.01775 5.86353 4.01325
17 4.03453 0.498101 -0.0222854
18 3.38062 1.95477 2.22805
19 6.11361 -0.0535975 1.92549
20 6.03145 2.05821 -0.0681383
21 3.96103 0.192574 4.1366
22 3.75146 1.99324 5.92418
23 6.01248 0.0226667 6.018
24 5.90967 2.26861 3.87433
25 3.73768 4.13588 0.119786
26 4.43268 6.15528 2.36882
27 5.88406 4.01953 2.00923
28 5.34337 6.30701 0.0516602
29 7.54439 4.4728 4.24504
30 3.77794 5.9775 5.94999
31 5.4446 4.17308 6.42162
ITEM: TIMESTEP
7500
ITEM: NUMBER OF ATOMS
31
ITEM: BOX BOUNDS pp pp pp
0.0000000000000000e+00 8.0988000000000007e+00
0.0000000000000000e+00 8.0988000000000007e+00
0.0000000000000000e+00 8.0988000000000007e+00
ITEM: ATOMS id xu yu zu
1 -0.0297921 -0.146457 0.375933
2 -0.312791 2.03517 1.94278
3 1.7554 0.123256 2.62302
4 1.92997 2.02073 -0.289414
5 -0.572492 -0.148973 3.92088
6 -0.345036 1.91256 5.83423
7 1.81728 0.165115 5.70714
8 1.56505 2.25976 4.11392
9 -0.366236 3.86021 0.119035
10 -0.286398 5.98021 2.24995
11 1.76243 3.90809 2.15297
12 1.66994 5.85892 0.0896568
13 -0.191288 6.22494 6.19922
14 1.76297 4.25456 5.6538
15 4.0244 4.08439 4.08441
16 1.58788 5.79832 3.79798
17 3.2564 -0.0778316 0.155933
18 3.78252 1.96629 2.08757
19 5.81534 0.0579727 1.79728
20 5.6469 2.09927 -0.14497
21 3.94203 0.0727954 4.12583
22 3.70747 2.10856 5.94878
23 6.06427 0.0293205 6.10112
24 5.874 2.27214 3.80993
25 3.95474 4.02268 -0.172768
26 4.13322 6.10437 2.23958
27 5.81963 4.06774 1.84885
28 6.10833 6.12266 0.178653
29 7.75305 4.01982 4.19809
30 3.8426 6.01824 6.26
31 5.63973 4.03667 6.12681
ITEM: TIMESTEP
8000
ITEM: NUMBER OF ATOMS
31
ITEM: BOX BOUNDS pp pp pp
0.0000000000000000e+00 8.0988000000000007e+00
0.0000000000000000e+00 8.0988000000000007e+00
0.0000000000000000e+00 8.0988000000000007e+00
ITEM: ATOMS id xu yu zu
1 -0.597356 -0.0162793 -0.430476
2 -0.144802 2.07472 2.23876
3 1.74665 -0.162061 1.83339
4 1.70888 1.84672 -0.158459
5 0.0989011 0.00924542 4.06554
6 -0.224527 2.24174 6.15388
7 1.65205 -0.211899 6.11391
8 1.86605 2.28089 3.87055
9 -0.0648354 4.15674 0.106829
10 -0.211088 5.6766 2.18021
11 2.19435 4.21015 2.01488
12 1.93932 5.99035 0.136221
13 -0.408386 6.30367 5.77125
14 1.57038 4.23929 6.28568
15 3.97417 4.30876 4.19116
16 1.65034 5.93339 4.23793
17 4.02561 -0.256401 0.0190008
18 3.92289 1.78523 1.72685
19 6.22177 -0.166634 2.14838
20 5.90182 1.88772 -0.103565
21 3.96814 0.0385464 3.90234
22 3.76135 2.15202 6.34294
23 5.4043 -0.121251 5.85324
24 5.53079 2.24695 4.05603
25 3.94128 4.06531 0.0706835
26 3.71129 6.10885 2.20199
27 5.65003 4.07259 1.891
28 6.10162 6.08876 0.00860916
29 6.90935 4.3844 4.17124
30 3.6012 5.89826 5.888
31 5.70995 4.04512 6.34822
ITEM: TIMESTEP
8500
ITEM: NUMBER OF ATOMS
31
ITEM: BOX BOUNDS pp pp pp
0.0000000000000000e+00 8.0988000000000007e+00
0.0000000000000000e+00 8.0988000000000007e+00
0.0000000000000000e+00 8.0988000000000007e+00
ITEM: ATOMS id xu yu zu
1 -0.62223 -0.159744 -0.29506
2 0.0948125 1.95493 1.90202
3 1.80696 -0.102137 1.93341
4 1.57455 1.82944 -0.198975
5 0.0958603 0.119475 3.90157
6 -0.400216 1.81872 6.29078
7 1.79723 -0.241754 6.06854
8 1.66245 2.28039 4.09937
9 -0.359365 4.14036 0.0299688
10 -0.416086 5.89115 2.18803
11 1.72997 3.93785 1.95564
12 1.99889 5.99681 -0.164278
13 -0.748783 6.2465 5.47089
14 1.69789 4.24025 5.997
15 3.97567 4.23786 4.03316
16 1.56321 5.99983 3.98917
17 3.81396 0.265839 0.175742
18 3.66285 1.85397 2.33704
19 6.15303 0.276044 2.20975
20 6.1133 1.99884 0.168783
21 3.9337 -0.0961243 3.88315
22 3.63831 2.47059 6.17451
23 5.31262 0.33784 6.04619
24 5.81961 2.01164 4.16305
25 3.94341 3.96311 0.283601
26 3.77923 5.94065 1.97635
27 5.96714 3.89826 2.11588
28 5.58679 6.25802 -0.0145103
29 7.97756 3.78835 4.25533
30 4.15011 6.08473 5.93896
31 5.80907 3.86982 6.22115
ITEM: TIMESTEP
9000
ITEM: NUMBER OF ATOMS
31
ITEM: BOX BOUNDS pp pp pp
0.0000000000000000e+00 8.0988000000000007e+00
0.0000000000000000e+00 8.0988000000000007e+00
0.0000000000000000e+00 8.0988000000000007e+00
ITEM: ATOMS id xu yu zu
1 0.0612374 -0.470231 0.0578688
2 -0.171309 2.35369 2.42584
3 1.87815 0.259035 2.08175
4 1.74793 1.75884 -0.0360955
5 -0.0882026 0.176862 4.0735
6 -0.259376 1.69395 5.92366
7 1.57934 -0.112682 6.03962
8 1.80223 2.60678 3.96168
9 -0.423571 3.99271 -0.0605086
10 -0.120573 5.94339 2.33928
11 1.73549 3.7352 1.65032
12 2.00933 5.88378 0.181529
13 -0.380895 6.15127 5.69147
14 1.79014 4.06519 6.38683
15 4.04257 3.93846 4.02496
16 1.58856 5.35328 4.24875
17 3.88927 0.0886095 -0.226289
18 3.78429 1.95392 1.849
19 6.30439 -0.0844309 2.39833
20 5.75192 2.01782 0.0402154
21 3.42548 -0.0150892 4.2102
22 3.66416 2.2066 5.9237
23 5.86794 -0.218334 6.06131
24 5.43853 1.753 3.95446
25 4.05318 4.27233 -0.00175076
26 4.18843 6.3165 1.97828
27 5.94526 3.87204 2.07355
28 6.17161 6.02076 -0.017032
29 5.79772 5.96232 3.96453
30 4.13612 5.88259 5.89232
31 5.90214 3.75334 6.04491
ITEM: TIMESTEP
9500
ITEM: NUMBER OF ATOMS
31
ITEM: BOX BOUNDS pp pp pp
0.0000000000000000e+00 8.0988000000000007e+00
0.0000000000000000e+00 8.0988000000000007e+00
0.0000000000000000e+00 8.0988000000000007e+00
ITEM: ATOMS id xu yu zu
1 -0.389256 -0.12631 -0.104884
2 -0.278355 2.00627 2.26994
3 1.62459 -0.245758 2.29989
4 1.59531 1.68246 0.16959
5 -0.581955 0.000774322 4.29795
6 -0.364421 2.23126 6.14414
7 1.77405 -0.319424 6.26834
8 1.79081 2.07242 4.21296
9 0.125072 3.84333 0.300425
10 -0.364216 6.01307 2.17868
11 1.96788 3.80581 1.91912
12 1.90412 6.18612 -0.00336416
13 -0.547509 5.69143 6.13122
14 2.12827 3.81428 6.47449
15 3.73243 4.09638 3.90981
16 1.84593 6.02182 4.15326
17 3.72493 -0.135145 0.262105
18 3.58272 1.83651 1.87455
19 5.90844 0.227552 1.92607
20 5.73936 2.12578 0.0459736
21 3.67221 -0.0102532 4.14343
22 3.7971 1.86749 6.19865
23 5.99007 -0.0186896 6.32572
24 5.61775 2.07307 3.97096
25 4.12579 4.42803 -0.331738
26 3.75779 5.81238 2.05776
27 5.71143 3.99504 1.68554
28 5.74358 6.09637 0.197709
29 5.81741 5.88155 4.08282
30 3.82696 6.15398 5.91411
31 8.1332 4.0039 4.16094
ITEM: TIMESTEP
10000
ITEM: NUMBER OF ATOMS
31
ITEM: BOX BOUNDS pp pp pp
0.0000000000000000e+00 8.0988000000000007e+00
0.0000000000000000e+00 8.0988000000000007e+00
0.0000000000000000e+00 8.0988000000000007e+00
ITEM: ATOMS id xu yu zu
1 -0.437523 0.0149604 -0.190454
2 -0.390212 1.78117 2.11926
3 1.51729 0.0957355 1.93906
4 1.62748 1.94337 0.0851811
5 -0.302543 -0.294566 3.78388
6 0.106067 1.86772 5.7286
7 1.53788 -0.129992 5.94999
8 1.86084 2.35051 3.6959
9 -0.403003 3.62773 0.145679
10 -0.53556 5.79233 1.69924
11 1.68611 4.20711 2.05073
12 1.58599 5.87426 -0.170466
13 -0.12449 5.68089 5.93881
14 2.27388 4.11518 6.03166
15 5.15603 3.83692 6.00539
16 1.47329 6.14515 3.84976
17 3.66741 -0.104423 0.403779
18 3.74804 2.19951 2.04111
19 5.85778 -0.286302 2.06369
20 5.57274 1.99288 0.109648
21 3.54943 0.199856 4.08745
22 3.44784 1.71814 6.42982
23 5.82457 0.349071 6.08356
24 5.51502 1.77071 3.88304
25 3.46849 4.2324 0.275428
26 4.07893 5.8592 2.71419
27 5.90619 4.09571 2.08402
28 5.78128 5.94976 -0.176393
29 6.12125 5.67861 4.34052
30 3.89274 6.57241 6.15214
31 8.04827 3.97546 3.98197
ITEM: TIMESTEP
10500
ITEM: NUMBER OF ATOMS
31
ITEM: BOX BOUNDS pp pp pp
0.0000000000000000e+00 8.0988000000000007e+00
0.0000000000000000e+00 8.0988000000000007e+00
0.0000000000000000e+00 8.0988000000000007e+00
ITEM: ATOMS id xu yu zu
1 -0.289413 0.0678979 0.119818
2 -0.372062 1.90516 2.42446
3 1.79426 0.168211 1.96191
4 1.38802 2.18606 -0.242634
5 -0.0827213 -0.158049 4.30908
6 -0.20775 2.17075 5.90113
7 1.63089 -0.370267 5.88322
8 1.86565 1.67058 3.86275
9 -0.642813 4.07163 0.662523
10 -0.504782 6.17643 2.1376
11 1.60178 3.91921 2.06875
12 1.61406 6.08039 0.453531
13 -0.171979 5.5157 6.26576
14 2.28231 4.01831 5.64782
15 5.74873 3.92382 5.99708
16 1.76525 6.07823 3.67747
17 3.41861 0.0737262 -0.121823
18 3.5478 1.79097 1.6895
19 5.41928 0.00648466 1.81626
20 5.94377 1.78807 -0.137075
21 3.70469 -0.322136 4.01657
22 3.66207 1.85832 5.98439
23 5.80262 0.022081 5.99879
24 5.53856 1.85373 4.06005
25 3.83326 3.92428 -0.0504931
26 3.7827 5.88942 1.99256
27 5.51896 3.73653 2.16689
28 5.81097 6.17437 0.0489227
29 5.86004 6.32729 4.14837
30 3.95574 6.35034 6.28456
31 7.89302 4.21395 4.10847
ITEM: TIMESTEP
11000
ITEM: NUMBER OF ATOMS
31
ITEM: BOX BOUNDS pp pp pp
0.0000000000000000e+00 8.0988000000000007e+00
0.0000000000000000e+00 8.0988000000000007e+00
0.0000000000000000e+00 8.0988000000000007e+00
ITEM: ATOMS id xu yu zu
1 -0.157023 -0.130347 -0.152748
2 -0.0102647 1.96532 1.6615
3 1.62034 -0.0668321 1.98923
4 1.93025 1.51992 -0.246909
5 -0.887749 0.463133 4.74086
6 0.0717763 2.47429 6.0289
7 1.33158 -0.767892 5.49087
8 1.59516 2.30452 3.83009
9 -0.39454 3.94331 0.175717
10 -0.173692 6.31461 2.65862
11 1.71618 4.14163 2.10158
12 1.48342 5.87025 0.173633
13 -0.557731 6.05613 6.16185
14 1.55244 4.5467 5.79174
15 5.30424 4.03641 6.23806
16 3.64041 4.26797 3.71539
17 4.00728 -0.17806 0.278693
18 3.91312 1.88758 1.78757
19 5.70471 -0.212565 2.14757
20 6.15183 1.87194 -0.14451
21 3.56363 0.0594926 4.08752
22 3.46406 2.13332 5.86781
23 5.17091 0.0637839 6.18996
24 5.4131 2.10441 3.99059
25 3.5225 3.58181 -0.159107
26 3.92611 6.00784 1.91299
27 5.67973 4.12053 1.98078
28 6.02142 6.14111 0.2241
29 5.73526 6.31623 4.43105
30 3.45361 6.07629 6.22501
31 7.31943 4.19867 3.95778
ITEM: TIMESTEP
11500
ITEM: NUMBER OF ATOMS
31
ITEM: BOX BOUNDS pp pp pp
0.0000000000000000e+00 8.0988000000000007e+00
0.0000000000000000e+00 8.0988000000000007e+00
0.0000000000000000e+00 8.0988000000000007e+00
ITEM: ATOMS id xu yu zu
1 -0.293847 0.092751 0.218134
2 -0.599652 1.83722 2.147
3 1.71431 0.0745639 1.92233
4 1.40032 2.14079 -0.169433
5 -0.67356 -0.104986 4.33136
6 -0.416697 1.93635 6.12858
7 1.46496 -1.73503 4.15654
8 1.89996 1.85802 3.78373
9 -0.249784 4.31956 0.130289
10 -0.24772 6.09379 2.09054
11 1.7894 4.19738 2.20704
12 1.37919 6.20376 0.0543218
13 -0.450231 6.07352 6.30913
14 1.79313 4.19601 6.02226
15 5.77092 4.1371 6.07907
16 3.61502 4.06294 4.03753
17 3.74545 0.33549 -0.155041
18 3.82395 1.99094 1.97498
19 5.41377 -0.0961534 2.18022
20 5.94176 2.12491 0.120263
21 3.50306 -0.217854 4.11919
22 3.66074 1.791 5.81168
23 5.92817 0.0261185 6.40603
24 5.57859 2.37463 4.16998
25 3.53101 4.11813 -0.103079
26 3.5657 6.17135 2.00231
27 5.91806 4.23347 2.18883
28 5.67776 6.19763 0.3261
29 5.60642 6.18688 4.41903
30 3.45333 6.36715 6.31638
31 7.86799 4.12405 3.91089
ITEM: TIMESTEP
12000
ITEM: NUMBER OF ATOMS
31
ITEM: BOX BOUNDS pp pp pp
0.0000000000000000e+00 8.0988000000000007e+00
0.0000000000000000e+00 8.0988000000000007e+00
0.0000000000000000e+00 8.0988000000000007e+00
ITEM: ATOMS id xu yu zu
1 0.0643005 0.177375 -0.3706
2 -0.282265 2.14645 2.2494
3 1.39712 -0.369685 2.23318
4 1.76171 2.07931 0.120859
5 -0.372718 0.0487355 3.98248
6 -0.200525 2.28111 5.92217
7 1.80562 -1.94226 4.22705
8 1.63877 1.84233 4.28259
9 -0.117713 3.96293 0.0738537
10 -0.731573 5.89116 1.88937
11 1.98771 3.82512 2.20335
12 1.41876 5.863 0.239226
13 -0.406817 6.38793 6.05636
14 1.68643 4.24206 6.12629
15 5.70264 4.29513 6.1883
16 3.69916 4.16197 4.40724
17 3.33604 -0.105792 0.067105
18 3.56612 1.81996 1.8865
19 5.5491 -0.115219 1.93305
20 5.68904 2.02868 0.460268
21 3.41585 0.0434638 3.80933
22 3.66045 2.09425 5.99707
23 5.76927 0.253194 6.02063
24 5.47838 2.11213 4.11954
25 3.83467 4.25699 0.235888
26 3.74243 6.29335 2.00277
27 5.46408 4.18778 2.2578
28 5.77445 6.28126 -0.246712
29 5.46463 6.16581 4.07279
30 3.53671 6.44497 6.3294
31 7.77967 4.45801 4.35964
ITEM: TIMESTEP
12500
ITEM: NUMBER OF ATOMS
31
ITEM: BOX BOUNDS pp pp pp
0.0000000000000000e+00 8.0988000000000007e+00
0.0000000000000000e+00 8.0988000000000007e+00
0.0000000000000000e+00 8.0988000000000007e+00
ITEM: ATOMS id xu yu zu
1 -0.322458 0.13637 -0.0684514
2 -0.34013 1.85136 1.82748
3 1.7959 0.213773 2.06364
4 1.70353 2.23128 -0.120831
5 -0.464735 0.0462572 3.92938
6 -0.331396 2.14664 6.14137
7 1.53795 -1.79452 4.24942
8 1.71553 2.05621 4.04716
9 -0.637967 4.26776 0.250236
10 -0.56293 6.28232 2.19208
11 1.61264 4.35744 2.18911
12 1.82492 5.96647 0.104837
13 -0.362527 6.13465 6.18439
14 1.28579 4.10885 6.02885
15 5.58076 4.26532 6.09984
16 3.67631 3.85844 4.49394
17 3.66713 -0.0462868 0.0907694
18 3.78776 2.11717 2.13225
19 5.5046 -0.108097 2.18102
20 5.85282 2.05289 0.291528
21 3.6343 -0.187175 4.21049
22 3.65414 1.8684 6.35952
23 5.95962 0.0133811 6.16032
24 5.86976 2.12813 3.81496
25 3.63178 4.17805 0.00803668
26 3.72615 6.02482 2.04057
27 5.48991 4.12457 2.00874
28 5.66351 6.44332 0.12268
29 5.52802 6.08712 4.19234
30 3.73746 6.28327 6.08423
31 7.69338 4.00332 3.82629
ITEM: TIMESTEP
13000
ITEM: NUMBER OF ATOMS
31
ITEM: BOX BOUNDS pp pp pp
0.0000000000000000e+00 8.0988000000000007e+00
0.0000000000000000e+00 8.0988000000000007e+00
0.0000000000000000e+00 8.0988000000000007e+00
ITEM: ATOMS id xu yu zu
1 -0.231132 -0.189726 -0.10789
2 -0.238206 2.40437 2.06877
3 1.46629 -0.0047769 2.04807
4 1.52826 2.38299 0.058247
5 -0.318227 0.464992 4.14908
6 0.0572963 2.21718 6.06049
7 1.6793 -1.57235 4.37304
8 1.87813 1.90962 3.95009
9 -0.349704 4.24197 0.110731
10 -0.40826 6.03409 2.18548
11 1.65405 4.33628 2.05538
12 1.76784 6.09278 -0.155371
13 -0.429749 5.87382 6.20335
14 1.68651 4.21581 5.81116
15 5.79736 3.89608 6.10208
16 3.6366 4.11182 4.22464
17 3.65942 -0.576445 0.333448
18 3.40305 2.08556 1.68793
19 5.72811 0.086618 1.7951
20 5.71234 2.43033 0.256445
21 3.69811 -0.294393 4.04173
22 3.14886 1.33681 6.18413
23 5.8344 0.431198 6.29291
24 5.23746 1.80648 4.06421
25 3.65298 4.45405 -0.234828
26 3.35927 5.98556 2.52102
27 5.43789 4.14763 2.1969
28 5.52752 5.96011 0.224555
29 5.86541 6.37486 4.12598
30 4.08221 6.15962 6.22026
31 7.58811 4.30857 4.28907
ITEM: TIMESTEP
13500
ITEM: NUMBER OF ATOMS
31
ITEM: BOX BOUNDS pp pp pp
0.0000000000000000e+00 8.0988000000000007e+00
0.0000000000000000e+00 8.0988000000000007e+00
0.0000000000000000e+00 8.0988000000000007e+00
ITEM: ATOMS id xu yu zu
1 -0.515523 0.341126 0.118058
2 -0.354019 2.05602 2.18253
3 1.67497 -0.119806 1.69423
4 1.60005 2.07525 0.00599284
5 -0.428754 -0.0790643 4.03933
6 -0.267216 2.10953 6.05912
7 1.60538 -2.1654 4.27382
8 1.65317 1.80292 3.89055
9 -0.586043 3.83609 -0.113691
10 -0.597672 6.09818 2.16895
11 1.48095 4.24738 2.32924
12 1.01183 6.20735 0.0323034
13 1.2569 7.92176 6.1506